     139
 i =      114, E =      -332.4138461678
 Si        11.3569973437       11.3428094418       11.4188968961
 Si        17.0441356660       11.9004747061       11.6841981242
 Si        11.8678906696       17.0511007432       11.5976395218
 Si        10.8826506066       11.0176832499       17.1679936571
 Si        11.3858437406       14.1896420511       14.1450683440
 Si        17.0529709609       13.8688782863       13.1291450684
 Si        14.1545275715       11.4650420172       14.1757880761
 Si        13.8067047184       17.0739657299       13.0899631857
 Si        14.0255739429       14.0466948107       11.1188473078
 Si        14.5157226806       14.5937253770       16.2479695959
 Si        12.7313613009       12.7670122669       12.7215317432
 Si        12.9636703887       15.7957881609       14.9455206256
 Si        15.7606497406       13.0473572129       14.9796266939
 Si        15.4933261578       15.5281674196       12.1763127803
 Si        11.7472641229       10.6151955011        5.8541440296
 Si        10.9414028756        5.7186793571       12.2469149340
 Si         5.7085161427       10.8161945546       12.0657877697
 Si         5.7072377451        8.5992521325        8.6841078193
 Si        11.3223203990        8.4102066461        8.8630455581
 Si        17.0064106275        8.8499194110        8.5264344509
 Si         5.7057866947       14.1351896371        9.0137191574
 Si        11.2546137788       14.0361392542        8.5144698270
 Si        17.0148968196       13.9211565075        8.3122979557
 Si         5.7632187410        9.0517994684       13.8701331200
 Si        11.5329231378        8.7068322876       14.3247365243
 Si        17.0506501859        8.6289638625       14.0394629511
 Si         5.7272928821       14.4170693312       14.0522340843
 Si         8.4594326642        5.7040292782        9.1460477727
 Si        14.1516776659        5.7353829119        8.9341467275
 Si         8.4895996633       11.2585759052        8.7516332463
 Si        14.1447237611       11.2448305953        8.6426060262
 Si         8.8421892747       17.0336490459        8.5561001570
 Si        13.9683619774       17.0266832558        8.2941180103
 Si         9.2119910086        5.7836184403       14.0757201340
 Si        14.4867668807        5.7546871879       14.2289578695
 Si         8.6677805107       11.5331112611       14.2283516759
 Si         8.5790376038       17.0645093417       13.9407560633
 Si         8.3701781764        8.5042769464        5.8825899554
 Si        13.4473837987        8.8075804253        5.8538811111
 Si         8.4560458577       13.7383792125        5.8454281287
 Si        13.8722786643       14.0849769713        5.8380210444
 Si         8.6396076640        8.5806336209       11.5962796759
 Si        14.2342285286        8.5951028835       11.4538834778
 Si         8.5935188004       14.2044257954       11.3669286762
 Si         9.0537536424        9.2813416541       17.1346134830
 Si        14.0880562639        8.5813246850       17.1655319815
 Si         8.4227940523       14.1449887545       17.1387849254
 Si         7.2409184208        7.0481413425        7.5243883783
 Si        12.7210840903        7.0700928187        7.4455153727
 Si         7.0031256685       12.7365717108        7.4925073746
 Si        12.6967925754       12.4971648908        7.1930104047
 Si         7.3629067414        7.2141124509       13.0694983165
 Si        12.8445657585        7.1337974024       13.0219060289
 Si         7.1149669874       12.7725135093       12.8696304642
 Si         7.1011068427        9.8458115683       10.2559790694
 Si        12.7515180295        9.9149848855       10.0914193120
 Si         7.3149197746       15.7042028736        9.9136454574
 Si        12.6979115338       15.5818704348        9.8125131177
 Si         7.2740541444       10.1403384477       15.5690381932
 Si        12.7926488402       10.1304639174       15.7910818473
 Si         7.3208714680       15.6615726176       15.5122493242
 Si        10.0067823329        7.0563683663       10.3870794121
 Si        15.6962373078        7.3344100231        9.9239106641
 Si         9.9380186920       12.7036707033       10.0342066075
 Si        15.6094333005       12.7066329628        9.8948473249
 Si        10.0992191198        7.4442869018       15.7786863080
 Si        15.6627621383        7.4252995145       15.6615670781
 Si         9.9974135929       12.8603510051       15.7537310369
 Si         9.9366340889        9.7322757192        7.3090365908
 Si        15.2974410460        9.8354294777        7.0853002105
 Si         9.7799298691       15.3398871760        7.0863857579
 Si        15.4434680354       15.4086748665        7.1696384407
 Si        10.0457312676       10.0347569710       12.9071616586
 Si        15.6384567150       10.1397480281       12.8049715286
 Si        10.0997085358       15.6480190111       12.7232395617
  H        18.4803378414       11.5075297542       11.3540846087
  H        11.4677506753       18.4743617598       11.2447688963
  H        11.2223087298       11.3780948623       18.6003941159
  H        18.4840454445       14.2593652181       13.4719766092
  H        14.1894364487       18.4977991851       13.4451878417
  H        13.6985238608       13.7723284003       17.2183885447
  H        15.3536510438       15.4743224633       17.1444423683
  H        12.3182177354       16.8916020058       15.7893000504
  H        16.8443732136       12.4003799114       15.8350643446
  H        16.0896858670       16.1217300978       10.9356603412
  H        11.3514001724       10.9358608005        4.4269752161
  H        11.2548100076        4.2668704642       11.9273523417
  H         4.2590588539       11.1262790867       11.7297540668
  H         4.3403341928        8.1187894449        9.1356531840
  H         5.5100361518        9.6558898877        7.6389866320
  H        17.2112658490       10.0202362466        9.4466616470
  H        18.3736719774        8.3835882709        8.0596838197
  H         5.5357108866       13.2284318218       10.2024567446
  H         4.3238408220       14.5392452686        8.5376585196
  H        18.3834444188       14.3901929754        8.7707460385
  H        17.2114239173       12.8857394986        7.2410611439
  H         4.3385732146        8.7111421505       14.2958225458
  H        18.4317657487        9.0822407029       14.4859422645
  H        17.2409368455        7.5485969233       13.0157331260
  H         4.3644715114       13.9988398012       14.5752150435
  H         5.5186697175       15.4313018449       12.9644694796
  H         8.9095985766        4.3259266767        8.7004999951
  H         7.3500789467        5.5211761379       10.1429863287
  H        14.5782707281        4.3574186693        8.4644557116
  H        13.1821543231        5.5516334435       10.0709308999
  H         8.3821625954       18.3953074565        8.0747122464
  H         9.9842692450       17.2384398037        9.5093848957
  H        12.9628940963       17.2540230020        7.2038569585
  H        14.4415056544       18.3775509294        8.7971394474
  H         8.8535984756        4.3580521602       14.4839327699
  H        15.5174102489        5.5367189756       13.1585220563
  H        14.0567422265        4.3969464629       14.7558924848
  H         7.5002908687       17.2778334373       12.9212580580
  H         9.0422403013       18.4266635253       14.4224762861
  H         7.3153716981        9.5411104188        5.6336095489
  H         8.8582922234        7.9762261084        4.5520456583
  H        13.7678103503        8.4007120682        4.4312049003
  H         9.4628696556       12.6400807988        5.6475696360
  H         7.9370190826       14.1632433985        4.4934806174
  H        14.4143453345       13.6325653078        4.5052922255
  H        12.7946878728       15.0982353700        5.6021722227
  H         8.6896427647        8.9213757288       18.5647132016
  H        14.5724173676        9.0514052883       18.5201435257
  H        13.0661788871        7.5045267281       17.3741404131
  H         7.3451666736       13.1223182353       17.3530002568
  H         8.8895727171       14.6400291756       18.4921154827
  H         6.4628824054        5.9010757195        6.9057403763
  H        11.8756115458        5.9137758686        6.9222941728
  H         5.8357825210       11.9264731972        6.9504297815
  H         6.6988197086        6.1483111205       12.2320681913
  H         6.7838320969       16.8398658716       10.7691024922
  H         6.3388954230       11.1117825586       16.2297128013
  H         6.5975660647       16.8173304978       16.1718339189
  H        16.8515425694        6.7766343493       10.7366127898
  H        10.9177974071        6.8504653226       16.9132076158
  H        16.7802265675        6.8195264430       16.4878753598
  H        15.8369739854       10.7216083733        5.9757174594
  H        10.6183574925       15.8764555117        5.9436568769
  H        16.1187131111       16.0423615828        5.9757990217

