      66
 i =       86, E =     -1832.8781712810
 Cd        16.6057638517       16.0992340241       14.4266618200
 Cd        13.7867322261       16.9250163190       16.9729701874
 Cd        13.9630410904       12.7188296475       18.9692705626
 Cd        14.3249739766        9.7648806833       18.6304898465
 Cd        10.9012370264       10.4570122496       18.8491646823
 Cd         8.7106759745        9.1690677104       16.9022189191
 Cd         8.3598383981       13.0443569950       16.9644250548
 Cd         6.6446524983       14.7093822316       13.5445127369
 Cd         8.7516383804       15.6562287222        9.7518382761
 Cd        10.4035182218       13.1694841152        7.5857397537
 Cd        13.4975679753       11.9663656354        7.5782902951
 Cd        14.2684275490        9.1651847798       10.1919260206
 Cd        11.8225988848       11.8628269151       10.6478265843
 Cd        10.3222981929       15.0714120473       12.6158248791
 Cd        12.1582068141       18.2569114523       10.3656031122
 Cd        15.0412479932       18.0879396188       10.9995591558
 Cd        13.1204733632       18.2372522403       14.1301895076
 Cd         9.8499506013       16.4777784068       16.0456488945
 Cd        11.9278891433       13.9197982547       16.0876194893
 Cd         9.0672509824       11.5945958402       14.0159404806
 Cd         6.6752566161        9.2746424032       12.1021516931
 Cd         9.1569887226        9.9256780875        9.7604071006
 Cd        13.8785319900        7.4793890601       13.4640947975
 Cd        16.5117984395       10.1409742802       12.5472648103
 Cd        16.2115688593       11.9600512906        9.8399364840
 Cd        13.2110573722       15.6380556136        7.7397590155
 Cd        18.5512592716       13.2212163050       12.9142988927
 Cd        14.4329946265       14.3341133695       12.4591683683
 Cd        16.4782739385       12.6870542755       16.2525566726
 Cd        13.2018491324       10.6363119284       14.4561545626
 Cd         6.6065478894       13.1447446041        9.9414316720
 Cd        11.9307851581        7.5030478591       16.2335788992
 Cd        10.3084336622        7.5671462107       12.8357467570
 Se        15.5687221507       18.1640180772       15.4834717510
 Se        14.3932995129       14.4055132033       17.1085955968
 Se        16.3670261780       11.4666519411       18.5982598943
 Se        12.8532015996       10.9464510268       20.6509979528
 Se        10.4992323826        7.7527533619       18.3455762376
 Se         8.3331604767       11.0421359048       18.6956926512
 Se         6.6175190835       12.5810623245       14.9915019442
 Se         6.4833651741       15.4802552219       11.0334652146
 Se         8.0816252761       14.1608797526        7.7294131855
 Se        12.5725948666       13.8184283941        5.8655849396
 Se        15.3432835498       10.1468666274        7.9912011635
 Se        12.3513818653        9.5923680946       12.0140618763
 Se         9.5539626661       12.6743107650       11.6699348862
 Se        11.2766508965       15.8570389005       10.1019413273
 Se        14.0665122965       18.0218103437        8.3774236077
 Se        13.3316139560       19.9704073830       12.0328701760
 Se        11.6809282536       18.2883671691       16.4271808138
 Se        10.1156017000       14.7165409582       17.9232202350
 Se        11.1496867542       11.4143069434       15.8156677481
 Se         8.4037133052        8.9904371461       14.2812085968
 Se         8.6554692271        7.6001533554       10.8255565249
 Se        11.0472896029       10.6475154306        8.0745401926
 Se        14.3192183724        8.7451041325       16.0964126599
 Se        15.9118477003        7.7190730942       11.8332198274
 Se        18.5245275655       11.4558484038       11.0771811825
 Se        13.9755885807       13.3925145799       10.0013268454
 Se        16.3952607717       15.9613823134       11.7507367055
 Se        12.5893934944       15.4037585132       13.8956692624
 Se        18.5234880043       14.3110712042       15.1899868089
 Se        15.3245446128       12.0924190309       13.8385740858
 Se         8.5760386034       16.6007966653       13.8289626547
 Se         6.5254443293       10.5959922795        9.8493322878
 Se        11.9283417788        5.7902673928       14.0812231403
